<?xml version="1.0" encoding="UTF-8"?>

<!-- generated on 2024-02-01 18:10:29 by Eclipse SUMO sumo Version 1.19.0
<configuration xmlns:xsi="http://www.w3.org/2001/XMLSchema-instance" xsi:noNamespaceSchemaLocation="http://sumo.dlr.de/xsd/sumoConfiguration.xsd">

    <input>
        <net-file value=".\MannheimSumoModel\osm.net.xml"/>
        <additional-files value=".\MannheimSumoModel\vehicleTypes.xml,.\MannheimSumoModel\routesPKW.xml,.\MannheimSumoModel\routesLKW.xml,.\MannheimSumoModel\osm.poly.xml,.\MannheimSumoModel\poi.trafficCounters.xml,.\MannheimSumoModel\parkingAreas.xml,.\MannheimSumoModel\parkingAreasCarSharing.xml"/>
    </input>

    <output>
        <fcd-output value="fcd-output-file.xml"/>
        <fcd-output.geo value="1"/>
    </output>

    <time>
        <begin value="0"/>
        <end value="100.0"/>
    </time>

    <processing>
        <ignore-route-errors value="true"/>
    </processing>

    <routing>
        <device.rerouting.adaptation-steps value="18"/>
        <device.rerouting.adaptation-interval value="10"/>
    </routing>

    <report>
        <verbose value="true"/>
        <duration-log.statistics value="true"/>
        <no-step-log value="true"/>
    </report>

    <gui_only>
        <gui-settings-file value=".\MannheimSumoModel\osm.view.xml"/>
    </gui_only>

</configuration>
-->

<fcd-export xmlns:xsi="http://www.w3.org/2001/XMLSchema-instance" xsi:noNamespaceSchemaLocation="http://sumo.dlr.de/xsd/fcd_file.xsd">
    <timestep time="0.00">
        <vehicle id="lkw_0_0" x="8.475364" y="49.481339" angle="287.22" type="truck_truck" speed="9.84" pos="43.43" lane="366073486_2" slope="0.00"/>
        <vehicle id="pkw_0_0" x="8.475115" y="49.481480" angle="32.33" type="veh_passenger" speed="0.30" pos="2.49" lane="150697174#0_1" slope="0.00"/>
    </timestep>
    <timestep time="1.00">
        <vehicle id="lkw_0_0" x="8.475219" y="49.481367" angle="287.22" type="truck_truck" speed="10.97" pos="54.40" lane="366073486_2" slope="0.00"/>
        <vehicle id="pkw_0_0" x="8.475107" y="49.481502" angle="9.04" type="veh_passenger" speed="2.75" pos="0.10" lane=":3556144179_5_0" slope="0.00"/>
        <vehicle id="pkw_0_1" x="8.477670" y="49.476579" angle="321.44" type="veh_passenger" speed="13.03" pos="6.93" lane="190443836#0_2" slope="0.00"/>
        <vehicle id="pkw_0_2" x="8.468782" y="49.478534" angle="302.92" type="veh_passenger" speed="14.03" pos="95.49" lane="251816579_0" slope="0.00"/>
        <vehicle id="pkw_0_3" x="8.487607" y="49.487311" angle="114.67" type="veh_passenger" speed="9.02" pos="24.71" lane="334457597#0_0" slope="0.00"/>
    </timestep>
    <timestep time="2.00">
        <vehicle id="lkw_0_0" x="8.475058" y="49.481399" angle="287.39" type="truck_truck" speed="12.20" pos="5.64" lane=":266024575_8_0" slope="0.00"/>
        <vehicle id="pkw_0_0" x="8.475073" y="49.481490" angle="275.32" type="veh_passenger" speed="3.15" pos="0.91" lane="-150697174#0_1" slope="0.00"/>
        <vehicle id="pkw_0_1" x="8.477562" y="49.476666" angle="321.44" type="veh_passenger" speed="12.43" pos="19.36" lane="190443836#0_2" slope="0.00"/>
        <vehicle id="pkw_0_2" x="8.468631" y="49.478607" angle="308.43" type="veh_passenger" speed="13.64" pos="109.13" lane="251816579_0" slope="0.00"/>
        <vehicle id="pkw_0_3" x="8.487714" y="49.487280" angle="114.67" type="veh_passenger" speed="8.45" pos="33.16" lane="334457597#0_0" slope="0.00"/>
        <vehicle id="pkw_0_4" x="8.445800" y="49.489649" angle="58.87" type="veh_passenger" speed="20.03" pos="32.70" lane="753460698_0" slope="0.00"/>
        <vehicle id="pkw_0_5" x="8.491177" y="49.497168" angle="141.12" type="veh_passenger" speed="6.92" pos="32.79" lane="22331103#1_1" slope="0.00"/>
        <vehicle id="pkw_0_6" x="8.487695" y="49.497674" angle="100.76" type="veh_passenger" speed="6.81" pos="3.00" lane="-4742868#1_1" slope="0.00"/>
        <vehicle id="pkw_0_7" x="8.490462" y="49.497318" angle="234.56" type="veh_passenger" speed="7.38" pos="12.51" lane="-151493316#3_1" slope="0.00"/>
    </timestep>
    <timestep time="3.00">
        <vehicle id="lkw_0_0" x="8.474884" y="49.481434" angle="287.64" type="truck_truck" speed="13.20" pos="5.39" lane="282331232#0_2" slope="0.00"/>
        <vehicle id="pkw_0_0" x="8.475044" y="49.481453" angle="207.34" type="veh_passenger" speed="4.87" pos="1.67" lane=":266024575_3_0" slope="0.00"/>
        <vehicle id="pkw_0_1" x="8.477459" y="49.476749" angle="321.44" type="veh_passenger" speed="11.87" pos="31.23" lane="190443836#0_2" slope="0.00"/>
        <vehicle id="pkw_0_10" x="8.450889" y="49.479057" angle="212.42" type="veh_passenger" speed="0.06" pos="0.13" lane="28560406#1_1" slope="0.00"/>
        <vehicle id="pkw_0_2" x="8.468485" y="49.478686" angle="310.68" type="veh_passenger" speed="13.74" pos="122.86" lane="251816579_0" slope="0.00"/>
        <vehicle id="pkw_0_3" x="8.487788" y="49.487258" angle="114.67" type="veh_passenger" speed="5.92" pos="39.07" lane="334457597#0_0" slope="0.00"/>
        <vehicle id="pkw_0_4" x="8.446033" y="49.489742" angle="58.87" type="veh_passenger" speed="19.80" pos="52.51" lane="753460698_0" slope="0.00"/>
        <vehicle id="pkw_0_5" x="8.491237" y="49.497120" angle="141.12" type="veh_passenger" speed="6.81" pos="39.61" lane="22331103#1_1" slope="0.00"/>
        <vehicle id="pkw_0_6" x="8.487787" y="49.497663" angle="100.77" type="veh_passenger" speed="6.67" pos="9.67" lane="-4742868#1_1" slope="0.00"/>
        <vehicle id="pkw_0_7" x="8.490379" y="49.497280" angle="234.56" type="veh_passenger" speed="7.36" pos="19.88" lane="-151493316#3_1" slope="0.00"/>
        <vehicle id="pkw_0_8" x="8.488035" y="49.494730" angle="164.81" type="veh_passenger" speed="4.13" pos="0.15" lane="144934058#0_0" slope="0.00"/>
        <vehicle id="pkw_0_9" x="8.487988" y="49.487293" angle="34.03" type="veh_passenger" speed="7.14" pos="0.62" lane="27287268_1" slope="0.00"/>
    </timestep>
    <timestep time="4.00">
        <vehicle id="lkw_0_0" x="8.474698" y="49.481472" angle="287.71" type="truck_truck" speed="14.09" pos="19.49" lane="282331232#0_2" slope="0.00"/>
        <vehicle id="pkw_0_0" x="8.475043" y="49.481391" angle="170.84" type="veh_passenger" speed="7.42" pos="9.09" lane=":266024575_3_0" slope="0.00"/>
        <vehicle id="pkw_0_1" x="8.477347" y="49.476839" angle="321.44" type="veh_passenger" speed="12.86" pos="44.09" lane="190443836#0_2" slope="0.00"/>
        <vehicle id="pkw_0_10" x="8.450887" y="49.479036" angle="197.58" type="veh_passenger" speed="2.51" pos="0.10" lane=":2575674696_17_0" slope="0.00"/>
        <vehicle id="pkw_0_11" x="8.486484" y="49.483483" angle="30.82" type="veh_passenger" speed="14.26" pos="98.44" lane="53175164#2_2" slope="0.00"/>
        <vehicle id="pkw_0_12" x="8.491774" y="49.478815" angle="120.91" type="veh_passenger" speed="8.72" pos="21.01" lane="364071761#1_1" slope="0.00"/>
        <vehicle id="pkw_0_13" x="8.478616" y="49.489926" angle="114.23" type="veh_passenger" speed="15.60" pos="6.90" lane="269001613#0_2" slope="0.00"/>
        <vehicle id="pkw_0_14" x="8.485216" y="49.479140" angle="301.16" type="veh_passenger" speed="8.26" pos="19.72" lane="24470195#1_1" slope="0.00"/>
        <vehicle id="pkw_0_2" x="8.468340" y="49.478766" angle="310.68" type="veh_passenger" speed="13.83" pos="136.70" lane="251816579_0" slope="0.00"/>
        <vehicle id="pkw_0_3" x="8.487838" y="49.487250" angle="107.41" type="veh_passenger" speed="3.91" pos="1.10" lane=":26819811_8_0" slope="0.00"/>
        <vehicle id="pkw_0_4" x="8.446260" y="49.489833" angle="58.87" type="veh_passenger" speed="19.32" pos="71.83" lane="753460698_0" slope="0.00"/>
        <vehicle id="pkw_0_5" x="8.491270" y="49.497094" angle="141.12" type="veh_passenger" speed="3.67" pos="43.28" lane="22331103#1_1" slope="0.00"/>
        <vehicle id="pkw_0_6" x="8.487874" y="49.497638" angle="117.23" type="veh_passenger" speed="6.88" pos="4.42" lane=":cluster_1825167406_242922428_5_0" slope="0.00"/>
        <vehicle id="pkw_0_7" x="8.490344" y="49.497263" angle="233.93" type="veh_passenger" speed="3.17" pos="0.10" lane=":5510333955_1_0" slope="0.00"/>
        <vehicle id="pkw_0_8" x="8.488069" y="49.494715" angle="136.50" type="veh_passenger" speed="3.53" pos="3.48" lane=":1652259400_3_0" slope="0.00"/>
        <vehicle id="pkw_0_9" x="8.488025" y="49.487346" angle="24.78" type="veh_passenger" speed="6.46" pos="7.08" lane="27287268_1" slope="0.00"/>
    </timestep>
    <timestep time="5.00">
        <vehicle id="lkw_0_0" x="8.474506" y="49.481511" angle="287.65" type="truck_truck" speed="14.55" pos="0.13" lane="282331232#1_2" slope="0.00"/>
        <vehicle id="pkw_0_0" x="8.475138" y="49.481353" angle="113.14" type="veh_passenger" speed="8.25" pos="1.37" lane="-366073486_2" slope="0.00"/>
        <vehicle id="pkw_0_1" x="8.477237" y="49.476928" angle="321.44" type="veh_passenger" speed="12.74" pos="56.83" lane="190443836#0_2" slope="0.00"/>
        <vehicle id="pkw_0_10" x="8.450925" y="49.479043" angle="102.18" type="veh_passenger" speed="3.43" pos="0.99" lane=":7007020188_1_0" slope="0.00"/>
        <vehicle id="pkw_0_11" x="8.486583" y="49.483593" angle="30.82" type="veh_passenger" speed="14.25" pos="112.70" lane="53175164#2_2" slope="0.00"/>
        <vehicle id="pkw_0_12" x="8.491877" y="49.478776" angle="120.91" type="veh_passenger" speed="8.64" pos="29.64" lane="364071761#1_1" slope="0.00"/>
        <vehicle id="pkw_0_13" x="8.478812" y="49.489870" angle="114.18" type="veh_passenger" speed="15.52" pos="0.01" lane="269001613#1_2" slope="0.00"/>
        <vehicle id="pkw_0_14" x="8.485118" y="49.479178" angle="301.16" type="veh_passenger" speed="8.21" pos="27.92" lane="24470195#1_1" slope="0.00"/>
        <vehicle id="pkw_0_15" x="8.479951" y="49.477646" angle="232.12" type="veh_passenger" speed="7.72" pos="4.87" lane="-38152916#0_1" slope="0.00"/>
        <vehicle id="pkw_0_16" x="8.493587" y="49.479881" angle="205.78" type="veh_passenger" speed="0.93" pos="6.55" lane="269017614_2" slope="0.00"/>
        <vehicle id="pkw_0_17" x="8.475679" y="49.481277" angle="287.22" type="veh_passenger" speed="13.08" pos="19.63" lane="366073486_2" slope="0.00"/>
        <vehicle id="pkw_0_2" x="8.468201" y="49.478842" angle="310.14" type="veh_passenger" speed="13.12" pos="149.82" lane="251816579_0" slope="0.00"/>
        <vehicle id="pkw_0_3" x="8.487839" y="49.487275" angle="24.42" type="veh_passenger" speed="3.74" pos="0.17" lane="-334457597#0_1" slope="0.00"/>
        <vehicle id="pkw_0_4" x="8.446489" y="49.489925" angle="58.87" type="veh_passenger" speed="19.50" pos="91.33" lane="753460698_0" slope="0.00"/>
        <vehicle id="pkw_0_5" x="8.491297" y="49.497040" angle="166.81" type="veh_passenger" speed="6.22" pos="5.39" lane=":240182267_1_0" slope="0.00"/>
        <vehicle id="pkw_0_6" x="8.487900" y="49.497587" angle="171.55" type="veh_passenger" speed="6.63" pos="11.05" lane=":cluster_1825167406_242922428_5_0" slope="0.00"/>
        <vehicle id="pkw_0_7" x="8.490339" y="49.497246" angle="217.21" type="veh_passenger" speed="1.99" pos="2.09" lane=":5510333955_1_0" slope="0.00"/>
        <vehicle id="pkw_0_8" x="8.488103" y="49.494740" angle="51.62" type="veh_passenger" speed="3.77" pos="2.14" lane=":1184106693_3_1" slope="0.00"/>
        <vehicle id="pkw_0_9" x="8.488060" y="49.487397" angle="24.78" type="veh_passenger" speed="6.26" pos="13.34" lane="27287268_1" slope="0.00"/>
    </timestep>
    <timestep time="6.00">
        <vehicle id="lkw_0_0" x="8.474316" y="49.481549" angle="287.59" type="truck_truck" speed="14.41" pos="14.54" lane="282331232#1_2" slope="0.00"/>
        <vehicle id="pkw_0_0" x="8.475266" y="49.481328" angle="107.22" type="veh_passenger" speed="9.67" pos="11.04" lane="-366073486_2" slope="0.00"/>
        <vehicle id="pkw_0_1" x="8.477126" y="49.477017" angle="321.44" type="veh_passenger" speed="12.73" pos="69.56" lane="190443836#0_2" slope="0.00"/>
        <vehicle id="pkw_0_10" x="8.450926" y="49.479046" angle="90.38" type="veh_passenger" speed="0.32" pos="1.31" lane=":7007020188_1_0" slope="0.00"/>
        <vehicle id="pkw_0_11" x="8.486680" y="49.483700" angle="30.82" type="veh_passenger" speed="13.85" pos="126.55" lane="53175164#2_2" slope="0.00"/>
        <vehicle id="pkw_0_12" x="8.491980" y="49.478736" angle="120.91" type="veh_passenger" speed="8.70" pos="38.34" lane="364071761#1_1" slope="0.00"/>
        <vehicle id="pkw_0_13" x="8.478999" y="49.489817" angle="113.91" type="veh_passenger" speed="14.76" pos="14.77" lane="269001613#1_2" slope="0.00"/>
        <vehicle id="pkw_0_14" x="8.485025" y="49.479214" angle="301.16" type="veh_passenger" speed="7.87" pos="35.79" lane="24470195#1_1" slope="0.00"/>
        <vehicle id="pkw_0_15" x="8.479882" y="49.477610" angle="232.12" type="veh_passenger" speed="6.44" pos="11.31" lane="-38152916#0_1" slope="0.00"/>
        <vehicle id="pkw_0_16" x="8.493572" y="49.479863" angle="206.86" type="veh_passenger" speed="2.34" pos="1.41" lane=":1178957385_2_0" slope="0.00"/>
        <vehicle id="pkw_0_17" x="8.475523" y="49.481308" angle="287.22" type="veh_passenger" speed="11.81" pos="31.44" lane="366073486_2" slope="0.00"/>
        <vehicle id="pkw_0_18" x="8.488384" y="49.487862" angle="24.78" type="veh_passenger" speed="7.80" pos="70.11" lane="27287268_1" slope="0.00"/>
        <vehicle id="pkw_0_19" x="8.469329" y="49.480659" angle="41.43" type="veh_passenger" speed="9.65" pos="0.13" lane="23566451#0_1" slope="0.00"/>
        <vehicle id="pkw_0_2" x="8.468061" y="49.478918" angle="310.14" type="veh_passenger" speed="13.15" pos="162.97" lane="251816579_0" slope="0.00"/>
        <vehicle id="pkw_0_20" x="8.463996" y="49.486658" angle="211.13" type="veh_passenger" speed="14.14" pos="28.18" lane="360248182#2_2" slope="0.00"/>
        <vehicle id="pkw_0_21" x="8.485178" y="49.479154" angle="301.16" type="veh_passenger" speed="6.63" pos="22.89" lane="24470195#1_1" slope="0.00"/>
        <vehicle id="pkw_0_3" x="8.487768" y="49.487296" angle="294.67" type="veh_passenger" speed="5.68" pos="5.86" lane="-334457597#0_1" slope="0.00"/>
        <vehicle id="pkw_0_4" x="8.446712" y="49.490014" angle="58.87" type="veh_passenger" speed="18.93" pos="110.26" lane="753460698_0" slope="0.00"/>
        <vehicle id="pkw_0_5" x="8.491341" y="49.496992" angle="145.10" type="veh_passenger" speed="6.17" pos="3.15" lane="367292568#0_1" slope="0.00"/>
        <vehicle id="pkw_0_6" x="8.487856" y="49.497534" angle="210.43" type="veh_passenger" speed="6.71" pos="5.60" lane="4087264_1" slope="0.00"/>
        <vehicle id="pkw_0_7" x="8.490365" y="49.497240" angle="165.68" type="veh_passenger" speed="2.14" pos="4.23" lane=":5510333955_1_0" slope="0.00"/>
        <vehicle id="pkw_0_8" x="8.488132" y="49.494783" angle="22.63" type="veh_passenger" speed="5.40" pos="7.55" lane=":1184106693_3_1" slope="0.00"/>
        <vehicle id="pkw_0_9" x="8.488098" y="49.487450" angle="24.78" type="veh_passenger" speed="6.54" pos="19.88" lane="27287268_1" slope="0.00"/>
    </timestep>
    <timestep time="7.00">
        <vehicle id="lkw_0_0" x="8.474129" y="49.481595" angle="293.70" type="truck_truck" speed="14.52" pos="1.29" lane="149888264#1_2" slope="0.00"/>
        <vehicle id="pkw_0_0" x="8.475412" y="49.481300" angle="107.22" type="veh_passenger" speed="11.03" pos="22.07" lane="-366073486_2" slope="0.00"/>
        <vehicle id="pkw_0_1" x="8.477022" y="49.477101" angle="321.44" type="veh_passenger" speed="12.02" pos="81.58" lane="190443836#0_2" slope="0.00"/>
        <vehicle id="pkw_0_10" x="8.450927" y="49.479047" angle="85.96" type="veh_passenger" speed="0.13" pos="1.45" lane=":7007020188_1_0" slope="0.00"/>
        <vehicle id="pkw_0_11" x="8.486773" y="49.483804" angle="30.82" type="veh_passenger" speed="13.34" pos="139.88" lane="53175164#2_2" slope="0.00"/>
        <vehicle id="pkw_0_12" x="8.492079" y="49.478698" angle="120.91" type="veh_passenger" speed="8.36" pos="0.24" lane=":4622608646_4_0" slope="0.00"/>
        <vehicle id="pkw_0_13" x="8.479195" y="49.489761" angle="113.91" type="veh_passenger" speed="15.47" pos="30.24" lane="269001613#1_2" slope="0.00"/>
        <vehicle id="pkw_0_14" x="8.484929" y="49.479251" angle="301.16" type="veh_passenger" speed="8.07" pos="43.86" lane="24470195#1_1" slope="0.00"/>
        <vehicle id="pkw_0_15" x="8.479799" y="49.477567" angle="232.12" type="veh_passenger" speed="7.62" pos="18.93" lane="-38152916#0_1" slope="0.00"/>
        <vehicle id="pkw_0_16" x="8.493534" y="49.479827" angle="215.12" type="veh_passenger" speed="4.89" pos="0.57" lane=":1178957385_5_0" slope="0.00"/>
        <vehicle id="pkw_0_17" x="8.475364" y="49.481339" angle="287.22" type="veh_passenger" speed="12.01" pos="43.44" lane="366073486_2" slope="0.00"/>
        <vehicle id="pkw_0_18" x="8.488428" y="49.487925" angle="24.78" type="veh_passenger" speed="7.64" pos="77.75" lane="27287268_1" slope="0.00"/>
        <vehicle id="pkw_0_19" x="8.469385" y="49.480722" angle="24.15" type="veh_passenger" speed="8.76" pos="2.82" lane="23566451#1_1" slope="0.00"/>
        <vehicle id="pkw_0_2" x="8.467922" y="49.478994" angle="311.28" type="veh_passenger" speed="13.17" pos="176.14" lane="251816579_0" slope="0.00"/>
        <vehicle id="pkw_0_20" x="8.463900" y="49.486553" angle="211.13" type="veh_passenger" speed="13.56" pos="41.74" lane="360248182#2_2" slope="0.00"/>
        <vehicle id="pkw_0_21" x="8.485105" y="49.479183" angle="301.16" type="veh_passenger" speed="6.19" pos="29.08" lane="24470195#1_1" slope="0.00"/>
        <vehicle id="pkw_0_22" x="8.476543" y="49.495695" angle="117.71" type="veh_passenger" speed="13.54" pos="102.54" lane="301704201#0_2" slope="0.00"/>
        <vehicle id="pkw_0_23" x="8.457101" y="49.486714" angle="118.88" type="veh_passenger" speed="12.36" pos="32.41" lane="150543795_2" slope="0.00"/>
        <vehicle id="pkw_0_24" x="8.456642" y="49.491615" angle="284.42" type="veh_passenger" speed="0.12" pos="0.08" lane="31648322#0_1" slope="0.00"/>
        <vehicle id="pkw_0_25" x="8.487061" y="49.484744" angle="284.38" type="veh_passenger" speed="7.27" pos="2.70" lane="-245941530#4_1" slope="0.00"/>
        <vehicle id="pkw_0_3" x="8.487666" y="49.487326" angle="294.67" type="veh_passenger" speed="8.11" pos="13.97" lane="-334457597#0_1" slope="0.00"/>
        <vehicle id="pkw_0_4" x="8.446935" y="49.490103" angle="58.87" type="veh_passenger" speed="19.02" pos="129.28" lane="753460698_0" slope="0.00"/>
        <vehicle id="pkw_0_5" x="8.491393" y="49.496952" angle="140.66" type="veh_passenger" speed="5.86" pos="9.01" lane="367292568#0_1" slope="0.00"/>
        <vehicle id="pkw_0_6" x="8.487795" y="49.497465" angle="210.43" type="veh_passenger" speed="8.84" pos="14.44" lane="4087264_1" slope="0.00"/>
        <vehicle id="pkw_0_7" x="8.490389" y="49.497249" angle="96.35" type="veh_passenger" speed="2.09" pos="1.65" lane="151493316#3_1" slope="0.00"/>
        <vehicle id="pkw_0_8" x="8.488159" y="49.494842" angle="17.57" type="veh_passenger" speed="6.95" pos="0.41" lane="144932088#0_1" slope="0.00"/>
        <vehicle id="pkw_0_9" x="8.488136" y="49.487506" angle="24.78" type="veh_passenger" speed="6.74" pos="26.61" lane="27287268_1" slope="0.00"/>
    </timestep>
    <timestep time="8.00">
        <vehicle id="lkw_0_0" x="8.473944" y="49.481635" angle="287.15" type="truck_truck" speed="14.34" pos="15.62" lane="149888264#1_2" slope="0.00"/>
        <vehicle id="lkw_0_1" x="8.475748" y="49.481263" angle="287.22" type="truck_truck" speed="14.81" pos="14.43" lane="366073486_2" slope="0.00"/>
        <vehicle id="pkw_0_0" x="8.475581" y="49.481266" angle="107.22" type="veh_passenger" speed="12.86" pos="34.93" lane="-366073486_2" slope="0.00"/>
        <vehicle id="pkw_0_1" x="8.476913" y="49.477189" angle="321.44" type="veh_passenger" speed="12.60" pos="94.18" lane="190443836#0_2" slope="0.00"/>
        <vehicle id="pkw_0_10" x="8.450927" y="49.479047" angle="85.49" type="veh_passenger" speed="0.01" pos="1.46" lane=":7007020188_1_0" slope="0.00"/>
        <vehicle id="pkw_0_11" x="8.486867" y="49.483908" angle="30.82" type="veh_passenger" speed="13.40" pos="153.29" lane="53175164#2_2" slope="0.00"/>
        <vehicle id="pkw_0_12" x="8.492157" y="49.478668" angle="120.98" type="veh_passenger" speed="6.52" pos="0.55" lane="364071761#2_1" slope="0.00"/>
        <vehicle id="pkw_0_13" x="8.479383" y="49.489706" angle="115.22" type="veh_passenger" speed="14.95" pos="45.19" lane="269001613#1_2" slope="0.00"/>
        <vehicle id="pkw_0_14" x="8.484840" y="49.479286" angle="301.16" type="veh_passenger" speed="7.58" pos="51.44" lane="24470195#1_1" slope="0.00"/>
        <vehicle id="pkw_0_15" x="8.479719" y="49.477526" angle="232.12" type="veh_passenger" speed="7.39" pos="26.32" lane="-38152916#0_1" slope="0.00"/>
        <vehicle id="pkw_0_16" x="8.493469" y="49.479784" angle="224.18" type="veh_passenger" speed="6.66" pos="7.23" lane=":1178957385_5_0" slope="0.00"/>
        <vehicle id="pkw_0_17" x="8.475196" y="49.481372" angle="287.22" type="veh_passenger" speed="12.71" pos="56.15" lane="366073486_2" slope="0.00"/>
        <vehicle id="pkw_0_18" x="8.488468" y="49.487983" angle="24.78" type="veh_passenger" speed="7.08" pos="84.83" lane="27287268_1" slope="0.00"/>
        <vehicle id="pkw_0_19" x="8.469450" y="49.480797" angle="30.78" type="veh_passenger" speed="9.53" pos="12.36" lane="23566451#1_1" slope="0.00"/>
        <vehicle id="pkw_0_2" x="8.467783" y="49.479073" angle="311.48" type="veh_passenger" speed="13.43" pos="189.57" lane="251816579_0" slope="0.00"/>
        <vehicle id="pkw_0_20" x="8.463806" y="49.486450" angle="211.13" type="veh_passenger" speed="13.36" pos="0.16" lane=":1643932782_3_0" slope="0.00"/>
        <vehicle id="pkw_0_21" x="8.485023" y="49.479214" angle="301.16" type="veh_passenger" speed="6.89" pos="35.96" lane="24470195#1_1" slope="0.00"/>
        <vehicle id="pkw_0_22" x="8.476694" y="49.495644" angle="117.71" type="veh_passenger" speed="12.34" pos="114.89" lane="301704201#0_2" slope="0.00"/>
        <vehicle id="pkw_0_23" x="8.457242" y="49.486664" angle="118.93" type="veh_passenger" speed="11.55" pos="7.44" lane=":705056564_0_1" slope="0.00"/>
        <vehicle id="pkw_0_24" x="8.456622" y="49.491613" angle="277.60" type="veh_passenger" speed="1.52" pos="0.73" lane=":3267205398_5_0" slope="0.00"/>
        <vehicle id="pkw_0_25" x="8.486968" y="49.484755" angle="281.37" type="veh_passenger" speed="7.03" pos="0.97" lane="-245941530#3_1" slope="0.00"/>
        <vehicle id="pkw_0_26" x="8.493714" y="49.478059" angle="121.22" type="veh_passenger" speed="3.35" pos="0.11" lane="27245673#7_1" slope="0.00"/>
        <vehicle id="pkw_0_27" x="8.479994" y="49.480134" angle="301.38" type="veh_passenger" speed="13.18" pos="14.66" lane="366073489#2_2" slope="0.00"/>
        <vehicle id="pkw_0_28" x="8.490692" y="49.479232" angle="121.22" type="veh_passenger" speed="6.75" pos="29.23" lane="150856067_1" slope="0.00"/>
        <vehicle id="pkw_0_3" x="8.487563" y="49.487356" angle="294.67" type="veh_passenger" speed="8.21" pos="22.17" lane="-334457597#0_1" slope="0.00"/>
        <vehicle id="pkw_0_4" x="8.447161" y="49.490193" angle="58.87" type="veh_passenger" speed="19.20" pos="148.48" lane="753460698_0" slope="0.00"/>
        <vehicle id="pkw_0_5" x="8.491433" y="49.496920" angle="140.66" type="veh_passenger" speed="4.53" pos="13.54" lane="367292568#0_1" slope="0.00"/>
        <vehicle id="pkw_0_6" x="8.487722" y="49.497383" angle="210.43" type="veh_passenger" speed="10.61" pos="25.04" lane="4087264_1" slope="0.00"/>
        <vehicle id="pkw_0_7" x="8.490439" y="49.497272" angle="54.56" type="veh_passenger" speed="4.41" pos="6.07" lane="151493316#3_1" slope="0.00"/>
        <vehicle id="pkw_0_8" x="8.488185" y="49.494896" angle="18.00" type="veh_passenger" speed="6.52" pos="6.93" lane="144932088#0_1" slope="0.00"/>
        <vehicle id="pkw_0_9" x="8.488175" y="49.487561" angle="24.78" type="veh_passenger" speed="6.80" pos="33.42" lane="27287268_1" slope="0.00"/>
    </timestep>
    <timestep time="9.00">
        <vehicle id="lkw_0_0" x="8.473774" y="49.481668" angle="286.93" type="truck_truck" speed="12.88" pos="3.65" lane="203461111_2" slope="0.00"/>
        <vehicle id="lkw_0_1" x="8.475556" y="49.481301" angle="287.22" type="truck_truck" speed="14.52" pos="28.95" lane="366073486_2" slope="0.00"/>
        <vehicle id="pkw_0_0" x="8.475756" y="49.481232" angle="107.22" type="veh_passenger" speed="13.19" pos="48.12" lane="-366073486_2" slope="0.00"/>
        <vehicle id="pkw_0_1" x="8.476802" y="49.477278" angle="321.44" type="veh_passenger" speed="12.74" pos="106.92" lane="190443836#0_2" slope="0.00"/>
        <vehicle id="pkw_0_10" x="8.450927" y="49.479047" angle="85.28" type="veh_passenger" speed="0.01" pos="1.47" lane=":7007020188_1_0" slope="0.00"/>
        <vehicle id="pkw_0_11" x="8.486960" y="49.484011" angle="30.82" type="veh_passenger" speed="13.37" pos="166.65" lane="53175164#2_2" slope="0.00"/>
        <vehicle id="pkw_0_12" x="8.492204" y="49.478650" angle="120.85" type="veh_passenger" speed="3.95" pos="4.51" lane="364071761#2_1" slope="0.00"/>
        <vehicle id="pkw_0_13" x="8.479576" y="49.489648" angle="115.22" type="veh_passenger" speed="15.43" pos="60.62" lane="269001613#1_2" slope="0.00"/>
        <vehicle id="pkw_0_14" x="8.484755" y="49.479319" angle="301.16" type="veh_passenger" speed="7.17" pos="58.61" lane="24470195#1_1" slope="0.00"/>
        <vehicle id="pkw_0_15" x="8.479644" y="49.477487" angle="232.12" type="veh_passenger" speed="6.91" pos="33.23" lane="-38152916#0_1" slope="0.00"/>
        <vehicle id="pkw_0_16" x="8.493402" y="49.479730" angle="218.49" type="veh_passenger" speed="7.79" pos="7.35" lane=":1751172607_4_0" slope="0.00"/>
        <vehicle id="pkw_0_17" x="8.475031" y="49.481405" angle="287.44" type="veh_passenger" speed="12.52" pos="7.72" lane=":266024575_8_0" slope="0.00"/>
        <vehicle id="pkw_0_18" x="8.488508" y="49.488041" angle="24.78" type="veh_passenger" speed="7.09" pos="91.92" lane="27287268_1" slope="0.00"/>
        <vehicle id="pkw_0_19" x="8.469517" y="49.480870" angle="31.02" type="veh_passenger" speed="9.43" pos="6.89" lane=":cluster_4510880399_4510880400_4510902181_4_0" slope="0.00"/>
        <vehicle id="pkw_0_2" x="8.467643" y="49.479151" angle="310.43" type="veh_passenger" speed="13.28" pos="5.58" lane="403293876_1" slope="0.00"/>
        <vehicle id="pkw_0_20" x="8.463715" y="49.486350" angle="211.26" type="veh_passenger" speed="12.90" pos="2.85" lane="165823635_2" slope="0.00"/>
        <vehicle id="pkw_0_21" x="8.484936" y="49.479248" angle="301.16" type="veh_passenger" speed="7.32" pos="43.28" lane="24470195#1_1" slope="0.00"/>
        <vehicle id="pkw_0_22" x="8.476849" y="49.495592" angle="117.71" type="veh_passenger" speed="12.58" pos="3.07" lane=":cluster_3215616568_3215616569_15_1" slope="0.00"/>
        <vehicle id="pkw_0_23" x="8.457376" y="49.486616" angle="119.37" type="veh_passenger" speed="11.13" pos="6.90" lane="56186952#0_2" slope="0.00"/>
        <vehicle id="pkw_0_24" x="8.456604" y="49.491588" angle="226.87" type="veh_passenger" speed="3.20" pos="0.10" lane=":3267205396_0_0" slope="0.00"/>
        <vehicle id="pkw_0_25" x="8.486886" y="49.484743" angle="258.08" type="veh_passenger" speed="6.08" pos="7.06" lane="-245941530#3_1" slope="0.00"/>
        <vehicle id="pkw_0_26" x="8.493753" y="49.478044" angle="121.33" type="veh_passenger" speed="3.28" pos="3.39" lane="27245673#7_1" slope="0.00"/>
        <vehicle id="pkw_0_27" x="8.479839" y="49.480186" angle="297.14" type="veh_passenger" speed="12.62" pos="27.29" lane="366073489#2_2" slope="0.00"/>
        <vehicle id="pkw_0_28" x="8.490760" y="49.479205" angle="121.22" type="veh_passenger" speed="5.77" pos="35.00" lane="150856067_1" slope="0.00"/>
        <vehicle id="pkw_0_29" x="8.469670" y="49.484216" angle="214.50" type="veh_passenger" speed="2.97" pos="0.56" lane="-23055466#0_1" slope="0.00"/>
        <vehicle id="pkw_0_3" x="8.487459" y="49.487387" angle="294.67" type="veh_passenger" speed="8.23" pos="30.40" lane="-334457597#0_1" slope="0.00"/>
        <vehicle id="pkw_0_30" x="8.455146" y="49.491675" angle="94.59" type="veh_passenger" speed="16.37" pos="3.39" lane="402016765_0" slope="0.00"/>
        <vehicle id="pkw_0_31" x="8.472908" y="49.480496" angle="320.30" type="veh_passenger" speed="12.66" pos="0.75" lane="127607225#3_1" slope="0.00"/>
        <vehicle id="pkw_0_32" x="8.487051" y="49.484745" angle="281.81" type="veh_passenger" speed="5.50" pos="3.40" lane="-245941530#4_1" slope="0.00"/>
        <vehicle id="pkw_0_4" x="8.447382" y="49.490282" angle="58.87" type="veh_passenger" speed="18.85" pos="167.33" lane="753460698_0" slope="0.00"/>
        <vehicle id="pkw_0_5" x="8.491470" y="49.496886" angle="144.82" type="veh_passenger" speed="4.69" pos="3.45" lane=":cluster_240182269_2518375002_9_0" slope="0.00"/>
        <vehicle id="pkw_0_6" x="8.487632" y="49.497282" angle="210.43" type="veh_passenger" speed="12.94" pos="37.98" lane="4087264_1" slope="0.00"/>
        <vehicle id="pkw_0_7" x="8.490516" y="49.497308" angle="54.56" type="veh_passenger" speed="6.88" pos="12.94" lane="151493316#3_1" slope="0.00"/>
        <vehicle id="pkw_0_8" x="8.488188" y="49.494926" angle="7.11" type="veh_passenger" speed="3.55" pos="10.48" lane="144932088#0_1" slope="0.00"/>
        <vehicle id="pkw_0_9" x="8.488215" y="49.487619" angle="24.78" type="veh_passenger" speed="7.06" pos="40.48" lane="27287268_1" slope="0.00"/>
    </timestep>
    <timestep time="10.00">
        <vehicle id="lkw_0_0" x="8.473655" y="49.481691" angle="286.66" type="truck_truck" speed="8.90" pos="12.55" lane="203461111_2" slope="0.00"/>
        <vehicle id="lkw_0_1" x="8.475365" y="49.481339" angle="287.22" type="truck_truck" speed="14.44" pos="43.39" lane="366073486_2" slope="0.00"/>